<?xml version="1.0"?>
<VTKFile type="UnstructuredGrid" version="0.1" byte_order="LittleEndian" header_type="UInt32" compressor="vtkZLibDataCompressor">
  <UnstructuredGrid>
    <Piece NumberOfPoints="118" NumberOfCells="198">
      <PointData>
      </PointData>
      <CellData Scalars="pre">
        <DataArray type="Float64" Name="pre" format="ascii" RangeMin="3.7706720881750315" RangeMax="13.40000057220459">
          6.756590951856049 12.997343509355458 12.97364682850816 7.608778679762057 7.349720416451021 8.153441705541159
          9.665999072377272 9.41251783524243 6.424247799638318 6.807026859499086 12.405815205297474 10.324935691646294
          8.932092792014423 11.670727121478508 6.696809344408963 7.420508693868644 8.632145102963467 7.355789071527353
          8.875389512899988 12.714037146397487 8.944136020693179 7.283323499795602 7.3949648490892885 9.199999809265137
          8.199999809265137 12.902529161836709 8.37082702322766 7.518530367377769 6.3500001006577955 11.018411905875746
          11.245794046666077 10.009302442648462 8.020511477914516 7.2669617150073265 13.375960775050721 12.222175769367771
          7.13715708024681 8.79629531705559 7.099999904632535 12.600000381469796 7.597430453809608 7.2000002861022585
          7.818232388747063 11.499998375118219 7.799998456906469 6.999999124368273 7.29963256030485 7.3322120241383475
          7.247148699635357 4.6333335452609266 6.400000095367432 7.400000095367432 8.44999980396342 3.7706720881750315
          12.80000019073465 4.909259283984301 12.942427456595103 6.4275262320663185 8.730758969055525 5.168482438024347
          7.470865651624176 12.38258985210047 6.299999323533371 8.699999809265156 6.320152185299749 8.696373693621851
          13.40000057220459 3.788710169361559 8.076240301557416 7.599112046139497 5.807406937634235 7.198652698574868
          8.465205068538697 6.400000095367432 9.783471517640582 8.677076425174452 7.304143856000903 10.834080692599139
          7.300195700442901 7.356498454461368 7.3000239255907 8.500016808240405 6.400000095367432 7.349350891054861
          9.445612789842611 7.300000190734863 6.821035728688338 7.756422400332227 8.037332811619983 8.952225168107416
          12.999999999999904 7.892265920180761 10.87667870333913 7.3000001907348775 8.41524124544767 8.125538438147252
          8.300000190734794 8.39800602627989 10.49999999999996 7.5943000216327725 8.192195398275668 7.797887272024742
          10.599998922368801 7.392364153960561 8.814596434089278 8.336821644592536 10.42062399418651 7.447795600146413
          9.200563952124169 8.160971443718173 11.059955694863687 13.189140288746799 10.500635245155744 10.49726402590396
          7.730765204232584 8.800000190734826 9.487884356363434 10.757824080477087 8.45000028623966 9.195427867084046
          10.337383861693407 7.200000286102304 8.431027181497072 9.842313712174828 8.511482872217421 9.36905557557162
          6.500000000000049 4.725447572266167 7.799999073635619 8.355768464496155 5.897200738032654 7.375727977911352
          8.919703420329434 6.438156394386354 6.962217425187931 8.700712286719455 4.493801152027245 7.761681370564088
          8.300000190734863 10.514183028235916 12.976424171905984 7.3562144845416215 7.215545012969516 4.153839505997926
          10.898193979027551 5.899999134594236 7.799998920560124 7.799998920560121 11.499999999999943 11.499998127306528
          11.63676403781255 10.699999809265137 10.699999809265137 5.900000095367403 7.721968019595825 6.400000095367492
          8.909173384947545 8.705391570019044 6.829312927465221 4.720146923313575 12.60000038146963 7.919201870882326
          8.41481260508156 11.401361518599423 12.455617016974834 7.3000901743524915 11.68884820544276 10.42777749166335
          10.499999999999941 12.688889270356242 12.313506511690653 12.600000381469608 12.476522397232747 10.888279573681427
          6.900000095367432 7.397078175387095 7.060935316082713 6.5 7.621767818164618 5.361970710504792
          9.7021261804997 7.800000190734819 7.754991233093097 11.4999999999999 10.931349090246881 6.117544039318599
          8.363349283601119 8.618571268585129 6.580959234444834 6.881418903453649 5.668173295163526 9.963338675129227
          7.766221242551346 5.391513657895077 8.75511445219443 9.199999809265137 9.581188842063835 10.275978892736847
        </DataArray>
      </CellData>
      <Points>
        <DataArray type="Float64" Name="Points" NumberOfComponents="3" format="ascii" RangeMin="0" RangeMax="6.4031242374328485">
          0 0 0 5 0 0
          5 4 0 0 4 0
          0.4999999999995947 0 0 0.9999999999984134 0 0
          1.499999999996955 0 0 1.999999999995513 0 0
          2.499999999996205 0 0 2.999999999996966 0 0
          3.499999999997728 0 0 3.999999999998489 0 0
          4.499999999999245 0 0 5 0.4999999999990952 0
          5 0.9999999999976482 0 5 1.49999999999619 0
          5 1.999999999994776 0 5 2.49999999999605 0
          5 2.999999999997367 0 5 3.499999999998683 0
          4.499999999999999 4 0 3.999999999999998 4 0
          3.499999999999997 4 0 2.999999999999996 4 0
          2.499999999999995 4 0 1.999999999999994 4 0
          1.499999999999992 4 0 0.9999999999999911 4 0
          0.4999999999999956 4 0 0 3.499999999998004 0
          0 3.000000000001386 0 0 2.500000000004855 0
          0 2.000000000008237 0 0 1.500000000006242 0
          0 1.000000000004162 0 0 0.500000000002081 0
          2.265798546853971 0.4238914066109839 0 2.749999999999935 3.577350269190535 0
          0.4330127018896738 2.250000000006776 0 4.515887990308685 1.721291157952515 0
          3.249999999997146 0.4330127018927404 0 1.749999999999994 3.573329484275529 0
          0.4330127018913362 1.250000000006348 0 4.599679368559095 2.734037287364883 0
          1.206637172643694 0.4481480624790066 0 3.745775399958263 3.578703610545326 0
          0.4233860225254564 3.247881315359677 0 4.230662432701147 0.421848152208157 0
          0.4330127018898574 1.750000000008703 0 0.8660254037804282 2.000000000008117 0
          0.8660254037794199 2.500000000006438 0 1.299038105671252 2.250000000007863 0
          1.299038105671842 1.75000000000879 0 1.732050807563251 2.000000000008579 0
          1.732050807563607 1.500000000008994 0 2.165063509455331 1.750000000009032 0
          2.168763921158599 2.243590698928989 0 2.598692946631 1.99893178316248 0
          2.625210852851049 1.535103350557096 0 3.033703670897031 1.753920133713432 0
          3.031627495395729 2.250475319485361 0 3.464627171766606 2.000732575539676 0
          3.464101615131112 1.500000000010194 0 3.470262035740893 2.522530415211393 0
          1.305354910972956 2.788748402221191 0 3.897114317022456 2.250000000009737 0
          3.031088913238387 2.750000000008743 0 1.307411517935653 1.264503175480731 0
          1.733099282557413 1.015972093721751 0 3.897114317022188 2.750000000009475 0
          2.752633091139479 0.4314924860121976 0 2.965664888242407 0.8430407192711439 0
          3.473466298134647 0.9485033022443512 0 2.495283483432778 0.8191813640038546 0
          3.749999999997363 0.4330127018933099 0 3.999999999998495 0.8660254037854584 0
          4.539957219767417 0.8147052950646799 0 4.249999999998625 1.299038105677189 0
          4.566987298108965 2.249999999994134 0 0.4233860225288407 0.752118684643692 0
          2.249999999999954 3.569771490982977 0 1.986017662442111 3.172602692073808 0
          1.278337285646486 3.591790500907493 0 1.736885620003159 2.478141994818935 0
          4.527193881727245 3.220499339533433 0 2.543206966671963 3.06820300978667 0
          3.24929589999303 3.58103014977715 0 3.484672574077193 3.081218998192643 0
          2.224749828680767 1.226702911488599 0 3.949238975830291 1.71845300684459 0
          2.598076211346683 2.500000000008702 0 1.735657837491482 0.5051897496787564 0
          0.4314082553290368 2.749646885897047 0 0.8243663844143013 3.01527706857205 0
          0.9086100644094759 0.9243779422283027 0 0.8745184159297654 1.489813519623498 0
          0.7910885367730781 3.530452272734197 0 0.7456552845443472 0.4161816644597777 0
          4.234352555081294 3.603882322562968 0 1.532342419179892 3.204280363629865 0
          2.126965062766456 2.722917844972307 0 3.999171452587595 3.190116389084741 0
          3.008323479140071 3.207158181768442 0 3.063606654562874 1.306322380129556 0
          3.820890929013137 1.258109208728057 0 4.665063509458926 1.250000000000386 0
          4.232125541608216 2.032051323961315 0 4.232050807571533 2.499999999993877 0
          1.378283175007543 0.8316382047177098 0 2.094791281142887 0.8112976320968601 0
          0.3660254037837317 3.633974596215732 0 0.3660254037858404 0.3660254037865067 0
          4.633974596214727 0.3660254037848267 0 4.633974596214663 3.633974596214312 0
          1.728839994976223 2.874968674216736 0 4.251041965493531 2.878930603197282 0
          2.690002125042068 1.148726086499351 0 1.146297907397343 3.226109721612959 0
          <InformationKey name="L2_NORM_RANGE" location="vtkDataArray" length="2">
            <Value index="0">
              0
            </Value>
            <Value index="1">
              6.4031242374
            </Value>
          </InformationKey>
        </DataArray>
      </Points>
      <Cells>
        <DataArray type="Int64" Name="connectivity" format="ascii" RangeMin="0" RangeMax="117">
          90 85 66 89 39 77
          106 39 89 97 94 44
          108 44 94 87 63 66
          103 62 72 87 69 63
          102 66 85 100 85 90
          76 14 13 104 72 62
          103 72 71 112 76 13
          102 87 66 97 79 94
          96 93 46 108 68 91
          117 93 96 104 89 77
          101 98 84 109 91 68
          108 91 44 101 69 87
          116 73 88 105 77 39
          116 88 58 95 67 94
          48 42 33 74 47 11
          75 47 74 75 74 72
          73 71 70 73 70 36
          78 43 17 76 47 75
          36 8 7 74 11 10
          70 8 36 77 76 75
          70 40 9 79 34 42
          71 40 70 47 12 11
          40 10 9 42 34 33
          70 9 8 79 35 34
          91 7 6 41 26 25
          80 24 37 83 56 53
          74 10 40 82 26 41
          84 18 43 80 41 25
          43 18 17 85 80 37
          72 40 71 81 41 80
          95 94 42 84 19 18
          48 33 32 59 58 57
          85 81 80 61 59 60
          78 17 16 82 27 26
          57 55 56 95 42 48
          80 25 24 91 36 7
          60 59 57 37 24 23
          62 59 61 58 55 57
          67 52 54 89 62 61
          88 54 55 68 67 54
          88 68 54 88 55 58
          86 37 23 56 55 53
          63 61 60 55 54 53
          86 23 22 83 53 51
          90 60 57 74 40 72
          39 16 15 90 57 56
          89 61 65 54 52 53
          87 86 45 90 66 60
          45 22 21 66 63 60
          65 61 63 53 52 51
          86 22 45 83 51 64
          38 32 31 91 6 44
          64 51 50 52 49 51
          69 65 63 44 6 5
          92 31 30 46 30 29
          50 49 38 78 16 39
          92 38 31 51 49 50
          95 52 67 92 30 46
          93 92 46 92 50 38
          48 32 38 49 48 38
          93 50 92 94 79 42
          95 49 52 93 64 50
          95 48 49 115 101 84
          100 81 85 96 28 27
          97 5 4 98 21 20
          99 41 81 100 56 83
          101 87 45 102 85 37
          102 86 87 103 58 59
          96 27 82 97 44 5
          98 45 21 104 75 72
          105 39 15 108 94 67
          109 36 91 99 82 41
          104 62 89 110 29 3
          111 4 0 111 0 35
          112 13 1 112 1 12
          112 47 76 113 2 19
          113 20 2 110 3 28
          100 90 56 102 37 86
          103 59 62 117 64 93
          114 100 83 117 96 82
          105 14 76 109 88 73
          101 45 98 115 84 43
          104 77 75 109 68 88
          106 89 65 107 65 69
          107 106 65 105 15 14
          107 43 78 105 76 77
          106 78 39 107 78 106
          117 99 64 108 67 68
          114 83 64 114 81 100
          109 73 36 110 28 96
          113 98 20 111 97 4
          111 35 79 112 12 47
          113 19 84 110 46 29
          116 71 73 116 58 103
          114 99 81 114 64 99
          110 96 46 113 84 98
          111 79 97 117 82 99
          116 103 71 115 69 101
          115 107 69 115 43 107
        </DataArray>
        <DataArray type="Int64" Name="offsets" format="ascii" RangeMin="3" RangeMax="594">
          3 6 9 12 15 18
          21 24 27 30 33 36
          39 42 45 48 51 54
          57 60 63 66 69 72
          75 78 81 84 87 90
          93 96 99 102 105 108
          111 114 117 120 123 126
          129 132 135 138 141 144
          147 150 153 156 159 162
          165 168 171 174 177 180
          183 186 189 192 195 198
          201 204 207 210 213 216
          219 222 225 228 231 234
          237 240 243 246 249 252
          255 258 261 264 267 270
          273 276 279 282 285 288
          291 294 297 300 303 306
          309 312 315 318 321 324
          327 330 333 336 339 342
          345 348 351 354 357 360
          363 366 369 372 375 378
          381 384 387 390 393 396
          399 402 405 408 411 414
          417 420 423 426 429 432
          435 438 441 444 447 450
          453 456 459 462 465 468
          471 474 477 480 483 486
          489 492 495 498 501 504
          507 510 513 516 519 522
          525 528 531 534 537 540
          543 546 549 552 555 558
          561 564 567 570 573 576
          579 582 585 588 591 594
        </DataArray>
        <DataArray type="UInt8" Name="types" format="ascii" RangeMin="5" RangeMax="5">
          5 5 5 5 5 5
          5 5 5 5 5 5
          5 5 5 5 5 5
          5 5 5 5 5 5
          5 5 5 5 5 5
          5 5 5 5 5 5
          5 5 5 5 5 5
          5 5 5 5 5 5
          5 5 5 5 5 5
          5 5 5 5 5 5
          5 5 5 5 5 5
          5 5 5 5 5 5
          5 5 5 5 5 5
          5 5 5 5 5 5
          5 5 5 5 5 5
          5 5 5 5 5 5
          5 5 5 5 5 5
          5 5 5 5 5 5
          5 5 5 5 5 5
          5 5 5 5 5 5
          5 5 5 5 5 5
          5 5 5 5 5 5
          5 5 5 5 5 5
          5 5 5 5 5 5
          5 5 5 5 5 5
          5 5 5 5 5 5
          5 5 5 5 5 5
          5 5 5 5 5 5
          5 5 5 5 5 5
          5 5 5 5 5 5
          5 5 5 5 5 5
          5 5 5 5 5 5
          5 5 5 5 5 5
        </DataArray>
      </Cells>
    </Piece>
  </UnstructuredGrid>
</VTKFile>
