<?xml version="1.0"?>
<VTKFile type="UnstructuredGrid" version="0.1" byte_order="LittleEndian" header_type="UInt32" compressor="vtkZLibDataCompressor">
  <UnstructuredGrid>
    <Piece NumberOfPoints="118" NumberOfCells="198">
      <PointData>
      </PointData>
      <CellData Scalars="pre">
        <DataArray type="Float64" Name="pre" format="ascii" RangeMin="8.814844439311814" RangeMax="39.39691817312912">
          24.22325454144148 30.906640851475203 30.886295977396745 30.645369258448028 32.459683167237856 26.893007587330555
          34.402039053339585 27.926951142695636 24.766550956716642 23.502600958547532 32.35898267038084 34.77532251113354
          35.21887121167736 34.09646324815079 25.54380868587432 30.70598902330405 12.885064139364964 33.13084652079747
          12.84718011398306 31.34315376448258 28.19799771782432 33.283623989985344 33.47895577038005 27.600000381469727
          32.70000076293945 31.14367694632731 31.777533546880385 30.53506562412638 22.02777677103926 35.20632944966361
          34.66894855846853 35.9277794407544 35.513543578716 37.87412025813235 28.791987853218185 32.79303943209962
          37.64809534944578 38.46542783948535 38.79999923706036 31.899999618530448 39.39691817312912 30.999999999999844
          38.62216504242769 34.49999512535466 39.28888522618997 28.888883044139025 39.03955515495981 30.823712107013865
          35.20492917673606 13.01111188464685 21 24.399999618530273 38.92777940962226 9.488577330169997
          28.60000038146925 14.14259264675252 28.64747628767774 21.578049526952277 36.31725429114988 15.244119342674901
          30.18740364511691 27.983823251020628 21.499997040502937 30.331731529451986 21.200598636800265 29.4844710211025
          28.80000114440918 9.164515802894249 27.31535349264083 24.648087292778737 18.274071625131533 35.74177579636707
          29.062602175116986 22.73827311197894 31.673897596885165 29.959065374398612 28.280802726907364 32.37675338078872
          27.92133903911457 31.597834853090095 31.687065408871366 29.902108789902382 25.37280103322724 25.970126642821135
          28.737320227654862 27.5 26.15343210478688 24.043577313565546 26.22399443280599 37.884861189036194
          30.899999618530046 25.384559192459104 30.930476066887984 27.932482609822614 28.287769988947506 27.248147314569852
          28.800001144408938 27.82240475637042 29.60000038146961 25.998859971227613 28.607087228377278 23.5389755648788
          20.699997913563116 33.680179691795615 22.83453400595246 25.407339397939324 29.47788346736586 33.19372757802516
          16.89042490199191 14.411765797153485 21.711902803324218 29.907015244598433 20.42950677782667 22.195546554977607
          27.81620431354193 15.800000190734796 15.020398223824841 20.98985381046131 21.100000381444083 22.66796904546294
          15.916141488294866 31.000000000000036 26.807397445926135 16.53676962079121 26.10725631872567 27.64696031157829
          21.87733305762854 8.814844439311814 30.199996437760326 28.723319729206473 17.910382504883483 24.305608060647593
          27.973729296067514 23.717473336864124 25.814581108589255 30.81365601908154 8.88247974604152 30.525710802909927
          28.80000114440918 34.94181752442893 30.958939244974232 32.40592853084201 35.25339178851867 10.754268497154502
          32.464714132987496 9.499998452992338 30.199995845083404 30.199995845083397 34.49999999999983 34.499994381919585
          34.1767396116634 25.5 25.5 9.499999999999954 24.99627596613651 25.362174906594504
          31.084997486362223 16.726414685537033 22.18066086741352 9.836011320877581 31.899999618530032 32.73120007102415
          28.646917763067727 28.21148968037796 32.110558756296626 32.799989239029216 30.218201085492282 29.488888846484905
          29.60000038146956 31.677777184386155 29.085078347146037 31.899999618529968 29.995422925653 29.49288889822088
          19.700000762939453 32.79999923706059 21.16173752745294 20.899999618530273 34.884181777452284 9.186149561129078
          26.872076933461454 30.200000762939275 30.260012658768346 34.49999999999971 25.841515585246704 9.972595463212208
          33.38062313994466 32.40754381878005 20.657122204728736 19.755744272229183 9.673207514131596 26.993230082338968
          30.245039324724047 14.750279264175886 35.012976971260855 27.600000381469727 28.186444961271057 28.393717596232673
        </DataArray>
      </CellData>
      <Points>
        <DataArray type="Float64" Name="Points" NumberOfComponents="3" format="ascii" RangeMin="0" RangeMax="6.4031242374328485">
          0 0 0 5 0 0
          5 4 0 0 4 0
          0.4999999999995947 0 0 0.9999999999984134 0 0
          1.499999999996955 0 0 1.999999999995513 0 0
          2.499999999996205 0 0 2.999999999996966 0 0
          3.499999999997728 0 0 3.999999999998489 0 0
          4.499999999999245 0 0 5 0.4999999999990952 0
          5 0.9999999999976482 0 5 1.49999999999619 0
          5 1.999999999994776 0 5 2.49999999999605 0
          5 2.999999999997367 0 5 3.499999999998683 0
          4.499999999999999 4 0 3.999999999999998 4 0
          3.499999999999997 4 0 2.999999999999996 4 0
          2.499999999999995 4 0 1.999999999999994 4 0
          1.499999999999992 4 0 0.9999999999999911 4 0
          0.4999999999999956 4 0 0 3.499999999998004 0
          0 3.000000000001386 0 0 2.500000000004855 0
          0 2.000000000008237 0 0 1.500000000006242 0
          0 1.000000000004162 0 0 0.500000000002081 0
          2.265798546853971 0.4238914066109839 0 2.749999999999935 3.577350269190535 0
          0.4330127018896738 2.250000000006776 0 4.515887990308685 1.721291157952515 0
          3.249999999997146 0.4330127018927404 0 1.749999999999994 3.573329484275529 0
          0.4330127018913362 1.250000000006348 0 4.599679368559095 2.734037287364883 0
          1.206637172643694 0.4481480624790066 0 3.745775399958263 3.578703610545326 0
          0.4233860225254564 3.247881315359677 0 4.230662432701147 0.421848152208157 0
          0.4330127018898574 1.750000000008703 0 0.8660254037804282 2.000000000008117 0
          0.8660254037794199 2.500000000006438 0 1.299038105671252 2.250000000007863 0
          1.299038105671842 1.75000000000879 0 1.732050807563251 2.000000000008579 0
          1.732050807563607 1.500000000008994 0 2.165063509455331 1.750000000009032 0
          2.168763921158599 2.243590698928989 0 2.598692946631 1.99893178316248 0
          2.625210852851049 1.535103350557096 0 3.033703670897031 1.753920133713432 0
          3.031627495395729 2.250475319485361 0 3.464627171766606 2.000732575539676 0
          3.464101615131112 1.500000000010194 0 3.470262035740893 2.522530415211393 0
          1.305354910972956 2.788748402221191 0 3.897114317022456 2.250000000009737 0
          3.031088913238387 2.750000000008743 0 1.307411517935653 1.264503175480731 0
          1.733099282557413 1.015972093721751 0 3.897114317022188 2.750000000009475 0
          2.752633091139479 0.4314924860121976 0 2.965664888242407 0.8430407192711439 0
          3.473466298134647 0.9485033022443512 0 2.495283483432778 0.8191813640038546 0
          3.749999999997363 0.4330127018933099 0 3.999999999998495 0.8660254037854584 0
          4.539957219767417 0.8147052950646799 0 4.249999999998625 1.299038105677189 0
          4.566987298108965 2.249999999994134 0 0.4233860225288407 0.752118684643692 0
          2.249999999999954 3.569771490982977 0 1.986017662442111 3.172602692073808 0
          1.278337285646486 3.591790500907493 0 1.736885620003159 2.478141994818935 0
          4.527193881727245 3.220499339533433 0 2.543206966671963 3.06820300978667 0
          3.24929589999303 3.58103014977715 0 3.484672574077193 3.081218998192643 0
          2.224749828680767 1.226702911488599 0 3.949238975830291 1.71845300684459 0
          2.598076211346683 2.500000000008702 0 1.735657837491482 0.5051897496787564 0
          0.4314082553290368 2.749646885897047 0 0.8243663844143013 3.01527706857205 0
          0.9086100644094759 0.9243779422283027 0 0.8745184159297654 1.489813519623498 0
          0.7910885367730781 3.530452272734197 0 0.7456552845443472 0.4161816644597777 0
          4.234352555081294 3.603882322562968 0 1.532342419179892 3.204280363629865 0
          2.126965062766456 2.722917844972307 0 3.999171452587595 3.190116389084741 0
          3.008323479140071 3.207158181768442 0 3.063606654562874 1.306322380129556 0
          3.820890929013137 1.258109208728057 0 4.665063509458926 1.250000000000386 0
          4.232125541608216 2.032051323961315 0 4.232050807571533 2.499999999993877 0
          1.378283175007543 0.8316382047177098 0 2.094791281142887 0.8112976320968601 0
          0.3660254037837317 3.633974596215732 0 0.3660254037858404 0.3660254037865067 0
          4.633974596214727 0.3660254037848267 0 4.633974596214663 3.633974596214312 0
          1.728839994976223 2.874968674216736 0 4.251041965493531 2.878930603197282 0
          2.690002125042068 1.148726086499351 0 1.146297907397343 3.226109721612959 0
          <InformationKey name="L2_NORM_RANGE" location="vtkDataArray" length="2">
            <Value index="0">
              0
            </Value>
            <Value index="1">
              6.4031242374
            </Value>
          </InformationKey>
        </DataArray>
      </Points>
      <Cells>
        <DataArray type="Int64" Name="connectivity" format="ascii" RangeMin="0" RangeMax="117">
          90 85 66 89 39 77
          106 39 89 97 94 44
          108 44 94 87 63 66
          103 62 72 87 69 63
          102 66 85 100 85 90
          76 14 13 104 72 62
          103 72 71 112 76 13
          102 87 66 97 79 94
          96 93 46 108 68 91
          117 93 96 104 89 77
          101 98 84 109 91 68
          108 91 44 101 69 87
          116 73 88 105 77 39
          116 88 58 95 67 94
          48 42 33 74 47 11
          75 47 74 75 74 72
          73 71 70 73 70 36
          78 43 17 76 47 75
          36 8 7 74 11 10
          70 8 36 77 76 75
          70 40 9 79 34 42
          71 40 70 47 12 11
          40 10 9 42 34 33
          70 9 8 79 35 34
          91 7 6 41 26 25
          80 24 37 83 56 53
          74 10 40 82 26 41
          84 18 43 80 41 25
          43 18 17 85 80 37
          72 40 71 81 41 80
          95 94 42 84 19 18
          48 33 32 59 58 57
          85 81 80 61 59 60
          78 17 16 82 27 26
          57 55 56 95 42 48
          80 25 24 91 36 7
          60 59 57 37 24 23
          62 59 61 58 55 57
          67 52 54 89 62 61
          88 54 55 68 67 54
          88 68 54 88 55 58
          86 37 23 56 55 53
          63 61 60 55 54 53
          86 23 22 83 53 51
          90 60 57 74 40 72
          39 16 15 90 57 56
          89 61 65 54 52 53
          87 86 45 90 66 60
          45 22 21 66 63 60
          65 61 63 53 52 51
          86 22 45 83 51 64
          38 32 31 91 6 44
          64 51 50 52 49 51
          69 65 63 44 6 5
          92 31 30 46 30 29
          50 49 38 78 16 39
          92 38 31 51 49 50
          95 52 67 92 30 46
          93 92 46 92 50 38
          48 32 38 49 48 38
          93 50 92 94 79 42
          95 49 52 93 64 50
          95 48 49 115 101 84
          100 81 85 96 28 27
          97 5 4 98 21 20
          99 41 81 100 56 83
          101 87 45 102 85 37
          102 86 87 103 58 59
          96 27 82 97 44 5
          98 45 21 104 75 72
          105 39 15 108 94 67
          109 36 91 99 82 41
          104 62 89 110 29 3
          111 4 0 111 0 35
          112 13 1 112 1 12
          112 47 76 113 2 19
          113 20 2 110 3 28
          100 90 56 102 37 86
          103 59 62 117 64 93
          114 100 83 117 96 82
          105 14 76 109 88 73
          101 45 98 115 84 43
          104 77 75 109 68 88
          106 89 65 107 65 69
          107 106 65 105 15 14
          107 43 78 105 76 77
          106 78 39 107 78 106
          117 99 64 108 67 68
          114 83 64 114 81 100
          109 73 36 110 28 96
          113 98 20 111 97 4
          111 35 79 112 12 47
          113 19 84 110 46 29
          116 71 73 116 58 103
          114 99 81 114 64 99
          110 96 46 113 84 98
          111 79 97 117 82 99
          116 103 71 115 69 101
          115 107 69 115 43 107
        </DataArray>
        <DataArray type="Int64" Name="offsets" format="ascii" RangeMin="3" RangeMax="594">
          3 6 9 12 15 18
          21 24 27 30 33 36
          39 42 45 48 51 54
          57 60 63 66 69 72
          75 78 81 84 87 90
          93 96 99 102 105 108
          111 114 117 120 123 126
          129 132 135 138 141 144
          147 150 153 156 159 162
          165 168 171 174 177 180
          183 186 189 192 195 198
          201 204 207 210 213 216
          219 222 225 228 231 234
          237 240 243 246 249 252
          255 258 261 264 267 270
          273 276 279 282 285 288
          291 294 297 300 303 306
          309 312 315 318 321 324
          327 330 333 336 339 342
          345 348 351 354 357 360
          363 366 369 372 375 378
          381 384 387 390 393 396
          399 402 405 408 411 414
          417 420 423 426 429 432
          435 438 441 444 447 450
          453 456 459 462 465 468
          471 474 477 480 483 486
          489 492 495 498 501 504
          507 510 513 516 519 522
          525 528 531 534 537 540
          543 546 549 552 555 558
          561 564 567 570 573 576
          579 582 585 588 591 594
        </DataArray>
        <DataArray type="UInt8" Name="types" format="ascii" RangeMin="5" RangeMax="5">
          5 5 5 5 5 5
          5 5 5 5 5 5
          5 5 5 5 5 5
          5 5 5 5 5 5
          5 5 5 5 5 5
          5 5 5 5 5 5
          5 5 5 5 5 5
          5 5 5 5 5 5
          5 5 5 5 5 5
          5 5 5 5 5 5
          5 5 5 5 5 5
          5 5 5 5 5 5
          5 5 5 5 5 5
          5 5 5 5 5 5
          5 5 5 5 5 5
          5 5 5 5 5 5
          5 5 5 5 5 5
          5 5 5 5 5 5
          5 5 5 5 5 5
          5 5 5 5 5 5
          5 5 5 5 5 5
          5 5 5 5 5 5
          5 5 5 5 5 5
          5 5 5 5 5 5
          5 5 5 5 5 5
          5 5 5 5 5 5
          5 5 5 5 5 5
          5 5 5 5 5 5
          5 5 5 5 5 5
          5 5 5 5 5 5
          5 5 5 5 5 5
          5 5 5 5 5 5
          5 5 5 5 5 5
        </DataArray>
      </Cells>
    </Piece>
  </UnstructuredGrid>
</VTKFile>
