<?xml version="1.0"?>
<VTKFile type="UnstructuredGrid" version="0.1" byte_order="LittleEndian" header_type="UInt32" compressor="vtkZLibDataCompressor">
  <UnstructuredGrid>
    <Piece NumberOfPoints="118" NumberOfCells="198">
      <PointData>
      </PointData>
      <CellData Scalars="pre">
        <DataArray type="Float64" Name="pre" format="ascii" RangeMin="5.999999999999956" RangeMax="16.600000381469727">
          12.538831260605226 6.0059771102837916 6.030569684962192 13.354379602120238 12.92582413796121 10.895299589755442
          9.315685636270931 9.652872410544115 12.672743609904558 12.651922492274153 6.970612879050367 8.695887021610641
          9.977342914578154 7.23791760783436 12.303191081882035 13.463248803157379 13.82311527666599 12.658722792558262
          13.996091739804795 6.384643238730268 10.34857495553102 12.383263083904495 12.417849110659334 9.800000190734863
          10.800000190734863 6.219309618256214 10.834165763858213 13.280785316409414 11.516666984539942 7.540794237796906
          7.458190594258962 8.621802186791736 10.439844826860426 10.545535072091319 6.256093095181712 7.037390848515221
          10.983053013295516 8.65185073586117 10.49999999999995 6.900000095367469 9.704110931561884 13.499999999999932
          9.778512311606958 7.2999991592881415 9.49999898159212 13.03333125347558 10.1805846551174 13.477962763434356
          11.917872068485208 15.511111397213385 16.600000381469727 13 8.850000360280317 14.576561385389715
          7.599999904632442 15.804938425841337 7.267669919467876 15.581532404824333 9.772966052320328 15.463802700122491
          13.409711516124096 7.480739848499624 11.399999002982812 10.678845984892984 14.079866884827327 10.327038737115029
          6.200000286102295 14.508871043892958 11.641173459973459 12.352947830831194 16.283950621993238 11.782481617136352
          10.628500005600301 16.402469328892096 9.26812392543941 10.931110881415664 13.552394631738949 8.264371656376126
          12.775780266732477 12.918310129099654 12.56295132175287 11.118262007975867 16.10309113006758 12.89870159137486
          9.762680726019603 12.800000190734863 15.014171570607484 13.356422304964807 11.29101160579263 8.855937226836408
          5.999999999999956 11.621670400551013 8.354914042856986 13.376643441360912 11.138246776258406 10.960468334829436
          11.199999809265043 10.640926298177012 8.900000572204554 13.535179872824797 11.478022713592567 13.495858494635279
          10.999998485838717 12.280910319012191 13.22540495562067 13.309732304824747 8.954953160259377 12.431438913788606
          11.93295487627037 12.26610442554021 12.471857353778704 6.094570144373398 11.066243406660734 12.769519894464601
          13.38692573388299 12.199999809265085 12.933743094206939 11.885747970917437 11.20000028608947 12.022541124172191
          13.396482735020477 13.500000000000014 13.115274088028077 13.540472551999375 12.874322066938168 9.696688331059223
          13.344606293588644 14.555467615515182 13.39999865308534 11.102405319102482 14.460067126040222 13.018878306432686
          10.236016861748631 13.908200072262852 13.154439447420568 10.376562006105353 14.579380394319712 13.294623805315103
          11.199999809265137 8.551271855866561 6.053045669420581 13.031357404682002 11.896246038652318 14.483125603150814
          8.190875346760516 12.499997964463603 13.399998390109484 13.399998390109479 7.300000190734828 7.299999001981585
          7.250267818738023 7 7 12.49999999999994 12.043617847520792 15.700398029549458
          10.099905617499221 13.706199775720064 13.443867629278888 14.470276606531382 6.900000095367379 11.330396461871466
          11.021402693246124 8.454723558188265 7.014303570744514 12.499830030891573 7.520936381785228 8.950000741755153
          8.90000057220454 6.699999883444943 7.2452745603633515 6.900000095367366 6.789163769742721 8.538498933178856
          13.600000381469727 12.888312864417593 13.520770452899342 13.699999809265137 11.0642026410064 13.441551744200174
          8.74627904859922 13.400000572204512 13.407502023413231 7.300000190734801 7.066099772052718 12.477495440506015
          10.609425977100774 10.515388461968277 13.679760121292654 13.604645651760002 13.225292075274812 8.63211405525705
          13.40563036558257 14.024262005861285 10.15236702887084 9.800000190734863 9.536100241679392 9.098704084618365
        </DataArray>
      </CellData>
      <Points>
        <DataArray type="Float64" Name="Points" NumberOfComponents="3" format="ascii" RangeMin="0" RangeMax="6.4031242374328485">
          0 0 0 5 0 0
          5 4 0 0 4 0
          0.4999999999995947 0 0 0.9999999999984134 0 0
          1.499999999996955 0 0 1.999999999995513 0 0
          2.499999999996205 0 0 2.999999999996966 0 0
          3.499999999997728 0 0 3.999999999998489 0 0
          4.499999999999245 0 0 5 0.4999999999990952 0
          5 0.9999999999976482 0 5 1.49999999999619 0
          5 1.999999999994776 0 5 2.49999999999605 0
          5 2.999999999997367 0 5 3.499999999998683 0
          4.499999999999999 4 0 3.999999999999998 4 0
          3.499999999999997 4 0 2.999999999999996 4 0
          2.499999999999995 4 0 1.999999999999994 4 0
          1.499999999999992 4 0 0.9999999999999911 4 0
          0.4999999999999956 4 0 0 3.499999999998004 0
          0 3.000000000001386 0 0 2.500000000004855 0
          0 2.000000000008237 0 0 1.500000000006242 0
          0 1.000000000004162 0 0 0.500000000002081 0
          2.265798546853971 0.4238914066109839 0 2.749999999999935 3.577350269190535 0
          0.4330127018896738 2.250000000006776 0 4.515887990308685 1.721291157952515 0
          3.249999999997146 0.4330127018927404 0 1.749999999999994 3.573329484275529 0
          0.4330127018913362 1.250000000006348 0 4.599679368559095 2.734037287364883 0
          1.206637172643694 0.4481480624790066 0 3.745775399958263 3.578703610545326 0
          0.4233860225254564 3.247881315359677 0 4.230662432701147 0.421848152208157 0
          0.4330127018898574 1.750000000008703 0 0.8660254037804282 2.000000000008117 0
          0.8660254037794199 2.500000000006438 0 1.299038105671252 2.250000000007863 0
          1.299038105671842 1.75000000000879 0 1.732050807563251 2.000000000008579 0
          1.732050807563607 1.500000000008994 0 2.165063509455331 1.750000000009032 0
          2.168763921158599 2.243590698928989 0 2.598692946631 1.99893178316248 0
          2.625210852851049 1.535103350557096 0 3.033703670897031 1.753920133713432 0
          3.031627495395729 2.250475319485361 0 3.464627171766606 2.000732575539676 0
          3.464101615131112 1.500000000010194 0 3.470262035740893 2.522530415211393 0
          1.305354910972956 2.788748402221191 0 3.897114317022456 2.250000000009737 0
          3.031088913238387 2.750000000008743 0 1.307411517935653 1.264503175480731 0
          1.733099282557413 1.015972093721751 0 3.897114317022188 2.750000000009475 0
          2.752633091139479 0.4314924860121976 0 2.965664888242407 0.8430407192711439 0
          3.473466298134647 0.9485033022443512 0 2.495283483432778 0.8191813640038546 0
          3.749999999997363 0.4330127018933099 0 3.999999999998495 0.8660254037854584 0
          4.539957219767417 0.8147052950646799 0 4.249999999998625 1.299038105677189 0
          4.566987298108965 2.249999999994134 0 0.4233860225288407 0.752118684643692 0
          2.249999999999954 3.569771490982977 0 1.986017662442111 3.172602692073808 0
          1.278337285646486 3.591790500907493 0 1.736885620003159 2.478141994818935 0
          4.527193881727245 3.220499339533433 0 2.543206966671963 3.06820300978667 0
          3.24929589999303 3.58103014977715 0 3.484672574077193 3.081218998192643 0
          2.224749828680767 1.226702911488599 0 3.949238975830291 1.71845300684459 0
          2.598076211346683 2.500000000008702 0 1.735657837491482 0.5051897496787564 0
          0.4314082553290368 2.749646885897047 0 0.8243663844143013 3.01527706857205 0
          0.9086100644094759 0.9243779422283027 0 0.8745184159297654 1.489813519623498 0
          0.7910885367730781 3.530452272734197 0 0.7456552845443472 0.4161816644597777 0
          4.234352555081294 3.603882322562968 0 1.532342419179892 3.204280363629865 0
          2.126965062766456 2.722917844972307 0 3.999171452587595 3.190116389084741 0
          3.008323479140071 3.207158181768442 0 3.063606654562874 1.306322380129556 0
          3.820890929013137 1.258109208728057 0 4.665063509458926 1.250000000000386 0
          4.232125541608216 2.032051323961315 0 4.232050807571533 2.499999999993877 0
          1.378283175007543 0.8316382047177098 0 2.094791281142887 0.8112976320968601 0
          0.3660254037837317 3.633974596215732 0 0.3660254037858404 0.3660254037865067 0
          4.633974596214727 0.3660254037848267 0 4.633974596214663 3.633974596214312 0
          1.728839994976223 2.874968674216736 0 4.251041965493531 2.878930603197282 0
          2.690002125042068 1.148726086499351 0 1.146297907397343 3.226109721612959 0
          <InformationKey name="L2_NORM_RANGE" location="vtkDataArray" length="2">
            <Value index="0">
              0
            </Value>
            <Value index="1">
              6.4031242374
            </Value>
          </InformationKey>
        </DataArray>
      </Points>
      <Cells>
        <DataArray type="Int64" Name="connectivity" format="ascii" RangeMin="0" RangeMax="117">
          90 85 66 89 39 77
          106 39 89 97 94 44
          108 44 94 87 63 66
          103 62 72 87 69 63
          102 66 85 100 85 90
          76 14 13 104 72 62
          103 72 71 112 76 13
          102 87 66 97 79 94
          96 93 46 108 68 91
          117 93 96 104 89 77
          101 98 84 109 91 68
          108 91 44 101 69 87
          116 73 88 105 77 39
          116 88 58 95 67 94
          48 42 33 74 47 11
          75 47 74 75 74 72
          73 71 70 73 70 36
          78 43 17 76 47 75
          36 8 7 74 11 10
          70 8 36 77 76 75
          70 40 9 79 34 42
          71 40 70 47 12 11
          40 10 9 42 34 33
          70 9 8 79 35 34
          91 7 6 41 26 25
          80 24 37 83 56 53
          74 10 40 82 26 41
          84 18 43 80 41 25
          43 18 17 85 80 37
          72 40 71 81 41 80
          95 94 42 84 19 18
          48 33 32 59 58 57
          85 81 80 61 59 60
          78 17 16 82 27 26
          57 55 56 95 42 48
          80 25 24 91 36 7
          60 59 57 37 24 23
          62 59 61 58 55 57
          67 52 54 89 62 61
          88 54 55 68 67 54
          88 68 54 88 55 58
          86 37 23 56 55 53
          63 61 60 55 54 53
          86 23 22 83 53 51
          90 60 57 74 40 72
          39 16 15 90 57 56
          89 61 65 54 52 53
          87 86 45 90 66 60
          45 22 21 66 63 60
          65 61 63 53 52 51
          86 22 45 83 51 64
          38 32 31 91 6 44
          64 51 50 52 49 51
          69 65 63 44 6 5
          92 31 30 46 30 29
          50 49 38 78 16 39
          92 38 31 51 49 50
          95 52 67 92 30 46
          93 92 46 92 50 38
          48 32 38 49 48 38
          93 50 92 94 79 42
          95 49 52 93 64 50
          95 48 49 115 101 84
          100 81 85 96 28 27
          97 5 4 98 21 20
          99 41 81 100 56 83
          101 87 45 102 85 37
          102 86 87 103 58 59
          96 27 82 97 44 5
          98 45 21 104 75 72
          105 39 15 108 94 67
          109 36 91 99 82 41
          104 62 89 110 29 3
          111 4 0 111 0 35
          112 13 1 112 1 12
          112 47 76 113 2 19
          113 20 2 110 3 28
          100 90 56 102 37 86
          103 59 62 117 64 93
          114 100 83 117 96 82
          105 14 76 109 88 73
          101 45 98 115 84 43
          104 77 75 109 68 88
          106 89 65 107 65 69
          107 106 65 105 15 14
          107 43 78 105 76 77
          106 78 39 107 78 106
          117 99 64 108 67 68
          114 83 64 114 81 100
          109 73 36 110 28 96
          113 98 20 111 97 4
          111 35 79 112 12 47
          113 19 84 110 46 29
          116 71 73 116 58 103
          114 99 81 114 64 99
          110 96 46 113 84 98
          111 79 97 117 82 99
          116 103 71 115 69 101
          115 107 69 115 43 107
        </DataArray>
        <DataArray type="Int64" Name="offsets" format="ascii" RangeMin="3" RangeMax="594">
          3 6 9 12 15 18
          21 24 27 30 33 36
          39 42 45 48 51 54
          57 60 63 66 69 72
          75 78 81 84 87 90
          93 96 99 102 105 108
          111 114 117 120 123 126
          129 132 135 138 141 144
          147 150 153 156 159 162
          165 168 171 174 177 180
          183 186 189 192 195 198
          201 204 207 210 213 216
          219 222 225 228 231 234
          237 240 243 246 249 252
          255 258 261 264 267 270
          273 276 279 282 285 288
          291 294 297 300 303 306
          309 312 315 318 321 324
          327 330 333 336 339 342
          345 348 351 354 357 360
          363 366 369 372 375 378
          381 384 387 390 393 396
          399 402 405 408 411 414
          417 420 423 426 429 432
          435 438 441 444 447 450
          453 456 459 462 465 468
          471 474 477 480 483 486
          489 492 495 498 501 504
          507 510 513 516 519 522
          525 528 531 534 537 540
          543 546 549 552 555 558
          561 564 567 570 573 576
          579 582 585 588 591 594
        </DataArray>
        <DataArray type="UInt8" Name="types" format="ascii" RangeMin="5" RangeMax="5">
          5 5 5 5 5 5
          5 5 5 5 5 5
          5 5 5 5 5 5
          5 5 5 5 5 5
          5 5 5 5 5 5
          5 5 5 5 5 5
          5 5 5 5 5 5
          5 5 5 5 5 5
          5 5 5 5 5 5
          5 5 5 5 5 5
          5 5 5 5 5 5
          5 5 5 5 5 5
          5 5 5 5 5 5
          5 5 5 5 5 5
          5 5 5 5 5 5
          5 5 5 5 5 5
          5 5 5 5 5 5
          5 5 5 5 5 5
          5 5 5 5 5 5
          5 5 5 5 5 5
          5 5 5 5 5 5
          5 5 5 5 5 5
          5 5 5 5 5 5
          5 5 5 5 5 5
          5 5 5 5 5 5
          5 5 5 5 5 5
          5 5 5 5 5 5
          5 5 5 5 5 5
          5 5 5 5 5 5
          5 5 5 5 5 5
          5 5 5 5 5 5
          5 5 5 5 5 5
          5 5 5 5 5 5
        </DataArray>
      </Cells>
    </Piece>
  </UnstructuredGrid>
</VTKFile>
