<?xml version="1.0"?>
<VTKFile type="UnstructuredGrid" version="0.1" byte_order="LittleEndian" header_type="UInt32" compressor="vtkZLibDataCompressor">
  <UnstructuredGrid>
    <Piece NumberOfPoints="118" NumberOfCells="198">
      <PointData>
      </PointData>
      <CellData Scalars="pre">
        <DataArray type="Float64" Name="pre" format="ascii" RangeMin="3.3999995417015163" RangeMax="18.800001144408867">
          7.276277724515092 10.886718106314738 10.890513424435735 3.4606527116779775 3.73548865046541 12.645527011332993
          7.04487743138194 14.600885406628757 9.887613896081513 5.7235637484881146 8.723468570908816 7.770694279439069
          5.96039837514032 8.055206589622848 11.566414922898757 3.463248627913006 5.039528107425937 3.894262305588042
          5.0202132292869965 10.28996200533116 16.70742047610875 4.033353461399227 3.885813451575139 15.5
          4.300000190734863 10.412645916610515 4.368331011154464 3.6795798462249145 4.350000185444448 7.57894136595126
          7.785659555989218 7.239972407587262 4.846372785956099 4.554464904917287 13.328378339803347 8.556523607443943
          4.451367270679808 6.09753027461924 4.599999904632546 8.900000572204638 5.196916943154435 3.4999999999999827
          5.307027976922855 7.899998979144282 5.355554754665126 3.6999996888680022 4.839559785240769 3.4779640661695503
          4.12927578361995 6.522222550710037 10.800000190734863 4 5.861111068722903 5.947114798389173
          18.800001144408867 6.725308734399665 17.446942797882606 9.506270453335276 5.936088685499506 6.383094060749786
          3.608346163429914 18.740370879394227 4.399999489702903 5.3108997433745415 6.586880250719244 7.134163762728729
          13.100000381469727 5.9354841440385595 4.4304336703794736 4.192002717299207 9.18024559727352 4.205390610508787
          6.509329988288485 12.656792009612502 7.783478262090238 4.488538304050827 4.080593874310571 8.832537231057149
          3.815965534484575 3.8829680341015944 3.958010492133673 4.404066620321186 15.470946964359229 3.898701470617632
          8.61012578404176 3.799999952316284 16.009674942036177 4.1425691259324 5.523950989522293 6.334763868037292
          10.90000057220451 4.68916014972317 9.574310977147183 4.0162410853745305 17.073055642113438 6.909602532367978
          17.80000114440903 7.626724907632804 9.999999999999961 4.144299971217218 17.669500547786317 4.22150048636445
          3.8999995585284184 3.9114540256832036 4.165592049302354 4.117964331419376 10.335821513785632 3.840253979660245
          4.366477754563346 4.566105700287567 3.9919910703167116 11.940270582004452 3.9331217986978055 4.037671072743634
          4.087006882169024 4.499999999999981 4.545858900640745 3.9843407729062146 4.150000095351439 4.098591216375456
          4.4614124785615585 3.500000000000004 4.099999904632564 4.470186327648383 4.123564540491016 15.654967823101195
          5.266363382019955 6.2681910779741 3.3999996084267337 17.816266866915733 5.376546491440125 4.0161814073508175
          16.21631365397509 9.754706658107365 13.42071081993725 6.407636691300766 6.2175205371048525 3.447898609160939
          17.80000114440918 7.683273575610908 10.782121319316344 3.734321483881007 4.173099849686578 5.79107431849957
          8.856772617750382 4.799999409088856 3.3999995417015176 3.3999995417015163 7.9000000953673934 7.899998808908422
          8.024331055002198 18.5 18.5 4.80000019073484 4.5076658395840745 14.965765571147696
          6.900757729057037 4.553099697125175 4.3804580111477875 5.979837649446628 8.900000572204522 4.206400778759151
          17.50659137072428 17.517915386191127 8.815776928572717 4.000029994570997 10.427985626065153 10.305556721209232
          9.999999999999943 9.344445440492827 12.192651452958879 8.900000572204505 11.274871776345481 10.415057444493636
          4.5 3.80584379924339 4.402579165966196 4.599999904632568 4.338479450372349 5.472537028710015
          18.208953954506114 3.400000095367412 3.4075015823460455 7.900000095367364 18.533050017354668 4.777495631240917
          4.708373616937985 5.269814653363274 4.579760120149125 4.504645292440803 5.312328926383328 18.25982758995012
          3.405629915590505 5.159962851516365 5.6877859157277895 15.5 13.887277405545104 14.395428107454489
        </DataArray>
      </CellData>
      <Points>
        <DataArray type="Float64" Name="Points" NumberOfComponents="3" format="ascii" RangeMin="0" RangeMax="6.4031242374328485">
          0 0 0 5 0 0
          5 4 0 0 4 0
          0.4999999999995947 0 0 0.9999999999984134 0 0
          1.499999999996955 0 0 1.999999999995513 0 0
          2.499999999996205 0 0 2.999999999996966 0 0
          3.499999999997728 0 0 3.999999999998489 0 0
          4.499999999999245 0 0 5 0.4999999999990952 0
          5 0.9999999999976482 0 5 1.49999999999619 0
          5 1.999999999994776 0 5 2.49999999999605 0
          5 2.999999999997367 0 5 3.499999999998683 0
          4.499999999999999 4 0 3.999999999999998 4 0
          3.499999999999997 4 0 2.999999999999996 4 0
          2.499999999999995 4 0 1.999999999999994 4 0
          1.499999999999992 4 0 0.9999999999999911 4 0
          0.4999999999999956 4 0 0 3.499999999998004 0
          0 3.000000000001386 0 0 2.500000000004855 0
          0 2.000000000008237 0 0 1.500000000006242 0
          0 1.000000000004162 0 0 0.500000000002081 0
          2.265798546853971 0.4238914066109839 0 2.749999999999935 3.577350269190535 0
          0.4330127018896738 2.250000000006776 0 4.515887990308685 1.721291157952515 0
          3.249999999997146 0.4330127018927404 0 1.749999999999994 3.573329484275529 0
          0.4330127018913362 1.250000000006348 0 4.599679368559095 2.734037287364883 0
          1.206637172643694 0.4481480624790066 0 3.745775399958263 3.578703610545326 0
          0.4233860225254564 3.247881315359677 0 4.230662432701147 0.421848152208157 0
          0.4330127018898574 1.750000000008703 0 0.8660254037804282 2.000000000008117 0
          0.8660254037794199 2.500000000006438 0 1.299038105671252 2.250000000007863 0
          1.299038105671842 1.75000000000879 0 1.732050807563251 2.000000000008579 0
          1.732050807563607 1.500000000008994 0 2.165063509455331 1.750000000009032 0
          2.168763921158599 2.243590698928989 0 2.598692946631 1.99893178316248 0
          2.625210852851049 1.535103350557096 0 3.033703670897031 1.753920133713432 0
          3.031627495395729 2.250475319485361 0 3.464627171766606 2.000732575539676 0
          3.464101615131112 1.500000000010194 0 3.470262035740893 2.522530415211393 0
          1.305354910972956 2.788748402221191 0 3.897114317022456 2.250000000009737 0
          3.031088913238387 2.750000000008743 0 1.307411517935653 1.264503175480731 0
          1.733099282557413 1.015972093721751 0 3.897114317022188 2.750000000009475 0
          2.752633091139479 0.4314924860121976 0 2.965664888242407 0.8430407192711439 0
          3.473466298134647 0.9485033022443512 0 2.495283483432778 0.8191813640038546 0
          3.749999999997363 0.4330127018933099 0 3.999999999998495 0.8660254037854584 0
          4.539957219767417 0.8147052950646799 0 4.249999999998625 1.299038105677189 0
          4.566987298108965 2.249999999994134 0 0.4233860225288407 0.752118684643692 0
          2.249999999999954 3.569771490982977 0 1.986017662442111 3.172602692073808 0
          1.278337285646486 3.591790500907493 0 1.736885620003159 2.478141994818935 0
          4.527193881727245 3.220499339533433 0 2.543206966671963 3.06820300978667 0
          3.24929589999303 3.58103014977715 0 3.484672574077193 3.081218998192643 0
          2.224749828680767 1.226702911488599 0 3.949238975830291 1.71845300684459 0
          2.598076211346683 2.500000000008702 0 1.735657837491482 0.5051897496787564 0
          0.4314082553290368 2.749646885897047 0 0.8243663844143013 3.01527706857205 0
          0.9086100644094759 0.9243779422283027 0 0.8745184159297654 1.489813519623498 0
          0.7910885367730781 3.530452272734197 0 0.7456552845443472 0.4161816644597777 0
          4.234352555081294 3.603882322562968 0 1.532342419179892 3.204280363629865 0
          2.126965062766456 2.722917844972307 0 3.999171452587595 3.190116389084741 0
          3.008323479140071 3.207158181768442 0 3.063606654562874 1.306322380129556 0
          3.820890929013137 1.258109208728057 0 4.665063509458926 1.250000000000386 0
          4.232125541608216 2.032051323961315 0 4.232050807571533 2.499999999993877 0
          1.378283175007543 0.8316382047177098 0 2.094791281142887 0.8112976320968601 0
          0.3660254037837317 3.633974596215732 0 0.3660254037858404 0.3660254037865067 0
          4.633974596214727 0.3660254037848267 0 4.633974596214663 3.633974596214312 0
          1.728839994976223 2.874968674216736 0 4.251041965493531 2.878930603197282 0
          2.690002125042068 1.148726086499351 0 1.146297907397343 3.226109721612959 0
          <InformationKey name="L2_NORM_RANGE" location="vtkDataArray" length="2">
            <Value index="0">
              0
            </Value>
            <Value index="1">
              6.4031242374
            </Value>
          </InformationKey>
        </DataArray>
      </Points>
      <Cells>
        <DataArray type="Int64" Name="connectivity" format="ascii" RangeMin="0" RangeMax="117">
          90 85 66 89 39 77
          106 39 89 97 94 44
          108 44 94 87 63 66
          103 62 72 87 69 63
          102 66 85 100 85 90
          76 14 13 104 72 62
          103 72 71 112 76 13
          102 87 66 97 79 94
          96 93 46 108 68 91
          117 93 96 104 89 77
          101 98 84 109 91 68
          108 91 44 101 69 87
          116 73 88 105 77 39
          116 88 58 95 67 94
          48 42 33 74 47 11
          75 47 74 75 74 72
          73 71 70 73 70 36
          78 43 17 76 47 75
          36 8 7 74 11 10
          70 8 36 77 76 75
          70 40 9 79 34 42
          71 40 70 47 12 11
          40 10 9 42 34 33
          70 9 8 79 35 34
          91 7 6 41 26 25
          80 24 37 83 56 53
          74 10 40 82 26 41
          84 18 43 80 41 25
          43 18 17 85 80 37
          72 40 71 81 41 80
          95 94 42 84 19 18
          48 33 32 59 58 57
          85 81 80 61 59 60
          78 17 16 82 27 26
          57 55 56 95 42 48
          80 25 24 91 36 7
          60 59 57 37 24 23
          62 59 61 58 55 57
          67 52 54 89 62 61
          88 54 55 68 67 54
          88 68 54 88 55 58
          86 37 23 56 55 53
          63 61 60 55 54 53
          86 23 22 83 53 51
          90 60 57 74 40 72
          39 16 15 90 57 56
          89 61 65 54 52 53
          87 86 45 90 66 60
          45 22 21 66 63 60
          65 61 63 53 52 51
          86 22 45 83 51 64
          38 32 31 91 6 44
          64 51 50 52 49 51
          69 65 63 44 6 5
          92 31 30 46 30 29
          50 49 38 78 16 39
          92 38 31 51 49 50
          95 52 67 92 30 46
          93 92 46 92 50 38
          48 32 38 49 48 38
          93 50 92 94 79 42
          95 49 52 93 64 50
          95 48 49 115 101 84
          100 81 85 96 28 27
          97 5 4 98 21 20
          99 41 81 100 56 83
          101 87 45 102 85 37
          102 86 87 103 58 59
          96 27 82 97 44 5
          98 45 21 104 75 72
          105 39 15 108 94 67
          109 36 91 99 82 41
          104 62 89 110 29 3
          111 4 0 111 0 35
          112 13 1 112 1 12
          112 47 76 113 2 19
          113 20 2 110 3 28
          100 90 56 102 37 86
          103 59 62 117 64 93
          114 100 83 117 96 82
          105 14 76 109 88 73
          101 45 98 115 84 43
          104 77 75 109 68 88
          106 89 65 107 65 69
          107 106 65 105 15 14
          107 43 78 105 76 77
          106 78 39 107 78 106
          117 99 64 108 67 68
          114 83 64 114 81 100
          109 73 36 110 28 96
          113 98 20 111 97 4
          111 35 79 112 12 47
          113 19 84 110 46 29
          116 71 73 116 58 103
          114 99 81 114 64 99
          110 96 46 113 84 98
          111 79 97 117 82 99
          116 103 71 115 69 101
          115 107 69 115 43 107
        </DataArray>
        <DataArray type="Int64" Name="offsets" format="ascii" RangeMin="3" RangeMax="594">
          3 6 9 12 15 18
          21 24 27 30 33 36
          39 42 45 48 51 54
          57 60 63 66 69 72
          75 78 81 84 87 90
          93 96 99 102 105 108
          111 114 117 120 123 126
          129 132 135 138 141 144
          147 150 153 156 159 162
          165 168 171 174 177 180
          183 186 189 192 195 198
          201 204 207 210 213 216
          219 222 225 228 231 234
          237 240 243 246 249 252
          255 258 261 264 267 270
          273 276 279 282 285 288
          291 294 297 300 303 306
          309 312 315 318 321 324
          327 330 333 336 339 342
          345 348 351 354 357 360
          363 366 369 372 375 378
          381 384 387 390 393 396
          399 402 405 408 411 414
          417 420 423 426 429 432
          435 438 441 444 447 450
          453 456 459 462 465 468
          471 474 477 480 483 486
          489 492 495 498 501 504
          507 510 513 516 519 522
          525 528 531 534 537 540
          543 546 549 552 555 558
          561 564 567 570 573 576
          579 582 585 588 591 594
        </DataArray>
        <DataArray type="UInt8" Name="types" format="ascii" RangeMin="5" RangeMax="5">
          5 5 5 5 5 5
          5 5 5 5 5 5
          5 5 5 5 5 5
          5 5 5 5 5 5
          5 5 5 5 5 5
          5 5 5 5 5 5
          5 5 5 5 5 5
          5 5 5 5 5 5
          5 5 5 5 5 5
          5 5 5 5 5 5
          5 5 5 5 5 5
          5 5 5 5 5 5
          5 5 5 5 5 5
          5 5 5 5 5 5
          5 5 5 5 5 5
          5 5 5 5 5 5
          5 5 5 5 5 5
          5 5 5 5 5 5
          5 5 5 5 5 5
          5 5 5 5 5 5
          5 5 5 5 5 5
          5 5 5 5 5 5
          5 5 5 5 5 5
          5 5 5 5 5 5
          5 5 5 5 5 5
          5 5 5 5 5 5
          5 5 5 5 5 5
          5 5 5 5 5 5
          5 5 5 5 5 5
          5 5 5 5 5 5
          5 5 5 5 5 5
          5 5 5 5 5 5
          5 5 5 5 5 5
        </DataArray>
      </Cells>
    </Piece>
  </UnstructuredGrid>
</VTKFile>
